# vtk DataFile Version 4.2
vtk output
ASCII
DATASET STRUCTURED_GRID
DIMENSIONS 19 19 76
POINTS 27436 float
0 0 0 0.311222 0 0 0.622444 0 0 
0.933667 0 0 1.24489 0 0 1.55611 0 0 
1.86733 0 0 2.17856 0 0 2.48978 0 0 
2.801 0 0 3.11222 0 0 3.42344 0 0 
3.73467 0 0 4.04589 0 0 4.35711 0 0 
4.66833 0 0 4.97956 0 0 5.29078 0 0 
5.602 0 0 -0.155611 0.269526 0 0.155611 0.269526 0 
0.466833 0.269526 0 0.778056 0.269526 0 1.08928 0.269526 0 
1.4005 0.269526 0 1.71172 0.269526 0 2.02294 0.269526 0 
2.33417 0.269526 0 2.64539 0.269526 0 2.95661 0.269526 0 
3.26783 0.269526 0 3.57906 0.269526 0 3.89028 0.269526 0 
4.2015 0.269526 0 4.51272 0.269526 0 4.82394 0.269526 0 
5.13517 0.269526 0 5.44639 0.269526 0 -0.311222 0.539053 0 
1.66533e-16 0.539053 0 0.311222 0.539053 0 0.622444 0.539053 0 
0.933667 0.539053 0 1.24489 0.539053 0 1.55611 0.539053 0 
1.86733 0.539053 0 2.17856 0.539053 0 2.48978 0.539053 0 
2.801 0.539053 0 3.11222 0.539053 0 3.42344 0.539053 0 
3.73467 0.539053 0 4.04589 0.539053 0 4.35711 0.539053 0 
4.66833 0.539053 0 4.97956 0.539053 0 5.29078 0.539053 0 
-0.466833 0.808579 0 -0.155611 0.808579 0 0.155611 0.808579 0 
0.466833 0.808579 0 0.778056 0.808579 0 1.08928 0.808579 0 
1.4005 0.808579 0 1.71172 0.808579 0 2.02294 0.808579 0 
2.33417 0.808579 0 2.64539 0.808579 0 2.95661 0.808579 0 
3.26783 0.808579 0 3.57906 0.808579 0 3.89028 0.808579 0 
4.2015 0.808579 0 4.51272 0.808579 0 4.82394 0.808579 0 
5.13517 0.808579 0 -0.622444 1.07811 0 -0.311222 1.07811 0 
3.33067e-16 1.07811 0 0.311222 1.07811 0 0.622444 1.07811 0 
0.933667 1.07811 0 1.24489 1.07811 0 1.55611 1.07811 0 
1.86733 1.07811 0 2.17856 1.07811 0 2.48978 1.07811 0 
2.801 1.07811 0 3.11222 1.07811 0 3.42344 1.07811 0 
3.73467 1.07811 0 4.04589 1.07811 0 4.35711 1.07811 0 
4.66833 1.07811 0 4.97956 1.07811 0 -0.778056 1.34763 0 
-0.466833 1.34763 0 -0.155611 1.34763 0 0.155611 1.34763 0 
0.466833 1.34763 0 0.778056 1.34763 0 1.08928 1.34763 0 
1.4005 1.34763 0 1.71172 1.34763 0 2.02294 1.34763 0 
2.33417 1.34763 0 2.64539 1.34763 0 2.95661 1.34763 0 
3.26783 1.34763 0 3.57906 1.34763 0 3.89028 1.34763 0 
4.2015 1.34763 0 4.51272 1.34763 0 4.82394 1.34763 0 
-0.933667 1.61716 0 -0.622444 1.61716 0 -0.311222 1.61716 0 
4.44089e-16 1.61716 0 0.311222 1.61716 0 0.622444 1.61716 0 
0.933667 1.61716 0 1.24489 1.61716 0 1.55611 1.61716 0 
1.86733 1.61716 0 2.17856 1.61716 0 2.48978 1.61716 0 
2.801 1.61716 0 3.11222 1.61716 0 3.42344 1.61716 0 
3.73467 1.61716 0 4.04589 1.61716 0 4.35711 1.61716 0 
4.66833 1.61716 0 -1.08928 1.88668 0 -0.778056 1.88668 0 
-0.466833 1.88668 0 -0.155611 1.88668 0 0.155611 1.88668 0 
0.466833 1.88668 0 0.778056 1.88668 0 1.08928 1.88668 0 
1.4005 1.88668 0 1.71172 1.88668 0 2.02294 1.88668 0 
2.33417 1.88668 0 2.64539 1.88668 0 2.95661 1.88668 0 
3.26783 1.88668 0 3.57906 1.88668 0 3.89028 1.88668 0 
4.2015 1.88668 0 4.51272 1.88668 0 -1.24489 2.15621 0 
-0.933667 2.15621 0 -0.622444 2.15621 0 -0.311222 2.15621 0 
6.66134e-16 2.15621 0 0.311222 2.15621 0 0.622444 2.15621 0 
0.933667 2.15621 0 1.24489 2.15621 0 1.55611 2.15621 0 
1.86733 2.15621 0 2.17856 2.15621 0 2.48978 2.15621 0 
2.801 2.15621 0 3.11222 2.15621 0 3.42344 2.15621 0 
3.73467 2.15621 0 4.04589 2.15621 0 4.35711 2.15621 0 
-1.4005 2.42574 0 -1.08928 2.42574 0 -0.778056 2.42574 0 
-0.466833 2.42574 0 -0.155611 2.42574 0 0.155611 2.42574 0 
0.466833 2.42574 0 0.778056 2.42574 0 1.08928 2.42574 0 
1.4005 2.42574 0 1.71172 2.42574 0 2.02294 2.42574 0 
2.33417 2.42574 0 2.64539 2.42574 0 2.95661 2.42574 0 
3.26783 2.42574 0 3.57906 2.42574 0 3.89028 2.42574 0 
4.2015 2.42574 0 -1.55611 2.69526 0 -1.24489 2.69526 0 
-0.933667 2.69526 0 -0.622444 2.69526 0 -0.311222 2.69526 0 
6.66134e-16 2.69526 0 0.311222 2.69526 0 0.622444 2.69526 0 
0.933667 2.69526 0 1.24489 2.69526 0 1.55611 2.69526 0 
1.86733 2.69526 0 2.17856 2.69526 0 2.48978 2.69526 0 
2.801 2.69526 0 3.11222 2.69526 0 3.42344 2.69526 0 
3.73467 2.69526 0 4.04589 2.69526 0 -1.71172 2.96479 0 
-1.4005 2.96479 0 -1.08928 2.96479 0 -0.778056 2.96479 0 
-0.466833 2.96479 0 -0.155611 2.96479 0 0.155611 2.96479 0 
0.466833 2.96479 0 0.778056 2.96479 0 1.08928 2.96479 0 
1.4005 2.96479 0 1.71172 2.96479 0 2.02294 2.96479 0 
2.33417 2.96479 0 2.64539 2.96479 0 2.95661 2.96479 0 
3.26783 2.96479 0 3.57906 2.96479 0 3.89028 2.96479 0 
-1.86733 3.23432 0 -1.55611 3.23432 0 -1.24489 3.23432 0 
-0.933667 3.23432 0 -0.622444 3.23432 0 -0.311222 3.23432 0 
8.88178e-16 3.23432 0 0.311222 3.23432 0 0.622444 3.23432 0 
0.933667 3.23432 0 1.24489 3.23432 0 1.55611 3.23432 0 
1.86733 3.23432 0 2.17856 3.23432 0 2.48978 3.23432 0 
2.801 3.23432 0 3.11222 3.23432 0 3.42344 3.23432 0 
3.73467 3.23432 0 -2.02294 3.50384 0 -1.71172 3.50384 0 
-1.4005 3.50384 0 -1.08928 3.50384 0 -0.778056 3.50384 0 
-0.466833 3.50384 0 -0.155611 3.50384 0 0.155611 3.50384 0 
0.466833 3.50384 0 0.778056 3.50384 0 1.08928 3.50384 0 
1.4005 3.50384 0 1.71172 3.50384 0 2.02294 3.50384 0 
2.33417 3.50384 0 2.64539 3.50384 0 2.95661 3.50384 0 
3.26783 3.50384 0 3.57906 3.50384 0 -2.17856 3.77337 0 
-1.86733 3.77337 0 -1.55611 3.77337 0 -1.24489 3.77337 0 
-0.933667 3.77337 0 -0.622444 3.77337 0 -0.311222 3.77337 0 
8.88178e-16 3.77337 0 0.311222 3.77337 0 0.622444 3.77337 0 
0.933667 3.77337 0 1.24489 3.77337 0 1.55611 3.77337 0 
1.86733 3.77337 0 2.17856 3.77337 0 2.48978 3.77337 0 
2.801 3.77337 0 3.11222 3.77337 0 3.42344 3.77337 0 
-2.33417 4.0429 0 -2.02294 4.0429 0 -1.71172 4.0429 0 
-1.4005 4.0429 0 -1.08928 4.0429 0 -0.778056 4.0429 0 
-0.466833 4.0429 0 -0.155611 4.0429 0 0.155611 4.0429 0 
0.466833 4.0429 0 0.778056 4.0429 0 1.08928 4.0429 0 
1.4005 4.0429 0 1.71172 4.0429 0 2.02294 4.0429 0 
2.33417 4.0429 0 2.64539 4.0429 0 2.95661 4.0429 0 
3.26783 4.0429 0 -2.48978 4.31242 0 -2.17856 4.31242 0 
-1.86733 4.31242 0 -1.55611 4.31242 0 -1.24489 4.31242 0 
-0.933667 4.31242 0 -0.622444 4.31242 0 -0.311222 4.31242 0 
1.33227e-15 4.31242 0 0.311222 4.31242 0 0.622444 4.31242 0 
0.933667 4.31242 0 1.24489 4.31242 0 1.55611 4.31242 0 
1.86733 4.31242 0 2.17856 4.31242 0 2.48978 4.31242 0 
2.801 4.31242 0 3.11222 4.31242 0 -2.64539 4.58195 0 
-2.33417 4.58195 0 -2.02294 4.58195 0 -1.71172 4.58195 0 
-1.4005 4.58195 0 -1.08928 4.58195 0 -0.778056 4.58195 0 
-0.466833 4.58195 0 -0.155611 4.58195 0 0.155611 4.58195 0 
0.466833 4.58195 0 0.778056 4.58195 0 1.08928 4.58195 0 
1.4005 4.58195 0 1.71172 4.58195 0 2.02294 4.58195 0 
2.33417 4.58195 0 2.64539 4.58195 0 2.95661 4.58195 0 
-2.801 4.85147 0 -2.48978 4.85147 0 -2.17856 4.85147 0 
-1.86733 4.85147 0 -1.55611 4.85147 0 -1.24489 4.85147 0 
-0.933667 4.85147 0 -0.622444 4.85147 0 -0.311222 4.85147 0 
1.33227e-15 4.85147 0 0.311222 4.85147 0 0.622444 4.85147 0 
0.933667 4.85147 0 1.24489 4.85147 0 1.55611 4.85147 0 
1.86733 4.85147 0 2.17856 4.85147 0 2.48978 4.85147 0 
2.801 4.85147 0 0 0 0.30168 0.311222 0 0.30168 
0.622444 0 0.30168 0.933667 0 0.30168 1.24489 0 0.30168 
1.55611 0 0.30168 1.86733 0 0.30168 2.17856 0 0.30168 
2.48978 0 0.30168 2.801 0 0.30168 3.11222 0 0.30168 
3.42344 0 0.30168 3.73467 0 0.30168 4.04589 0 0.30168 
4.35711 0 0.30168 4.66833 0 0.30168 4.97956 0 0.30168 
5.29078 0 0.30168 5.602 0 0.30168 -0.155611 0.269526 0.30168 
0.155611 0.269526 0.30168 0.466833 0.269526 0.30168 0.778056 0.269526 0.30168 
1.08928 0.269526 0.30168 1.4005 0.269526 0.30168 1.71172 0.269526 0.30168 
2.02294 0.269526 0.30168 2.33417 0.269526 0.30168 2.64539 0.269526 0.30168 
2.95661 0.269526 0.30168 3.26783 0.269526 0.30168 3.57906 0.269526 0.30168 
3.89028 0.269526 0.30168 4.2015 0.269526 0.30168 4.51272 0.269526 0.30168 
4.82394 0.269526 0.30168 5.13517 0.269526 0.30168 5.44639 0.269526 0.30168 
-0.311222 0.539053 0.30168 1.66533e-16 0.539053 0.30168 0.311222 0.539053 0.30168 
0.622444 0.539053 0.30168 0.933667 0.539053 0.30168 1.24489 0.539053 0.30168 
1.55611 0.539053 0.30168 1.86733 0.539053 0.30168 2.17856 0.539053 0.30168 
2.48978 0.539053 0.30168 2.801 0.539053 0.30168 3.11222 0.539053 0.30168 
3.42344 0.539053 0.30168 3.73467 0.539053 0.30168 4.04589 0.539053 0.30168 
4.35711 0.539053 0.30168 4.66833 0.539053 0.30168 4.97956 0.539053 0.30168 
5.29078 0.539053 0.30168 -0.466833 0.808579 0.30168 -0.155611 0.808579 0.30168 
0.155611 0.808579 0.30168 0.466833 0.808579 0.30168 0.778056 0.808579 0.30168 
1.08928 0.808579 0.30168 1.4005 0.808579 0.30168 1.71172 0.808579 0.30168 
2.02294 0.808579 0.30168 2.33417 0.808579 0.30168 2.64539 0.808579 0.30168 
2.95661 0.808579 0.30168 3.26783 0.808579 0.30168 3.57906 0.808579 0.30168 
3.89028 0.808579 0.30168 4.2015 0.808579 0.30168 4.51272 0.808579 0.30168 
4.82394 0.808579 0.30168 5.13517 0.808579 0.30168 -0.622444 1.07811 0.30168 
-0.311222 1.07811 0.30168 3.33067e-16 1.07811 0.30168 0.311222 1.07811 0.30168 
0.622444 1.07811 0.30168 0.933667 1.07811 0.30168 1.24489 1.07811 0.30168 
1.55611 1.07811 0.30168 1.86733 1.07811 0.30168 2.17856 1.07811 0.30168 
2.48978 1.07811 0.30168 2.801 1.07811 0.30168 3.11222 1.07811 0.30168 
3.42344 1.07811 0.30168 3.73467 1.07811 0.30168 4.04589 1.07811 0.30168 
4.35711 1.07811 0.30168 4.66833 1.07811 0.30168 4.97956 1.07811 0.30168 
-0.778056 1.34763 0.30168 -0.466833 1.34763 0.30168 -0.155611 1.34763 0.30168 
0.155611 1.34763 0.30168 0.466833 1.34763 0.30168 0.778056 1.34763 0.30168 
1.08928 1.34763 0.30168 1.4005 1.34763 0.30168 1.71172 1.34763 0.30168 
2.02294 1.34763 0.30168 2.33417 1.34763 0.30168 2.64539 1.34763 0.30168 
2.95661 1.34763 0.30168 3.26783 1.34763 0.30168 3.57906 1.34763 0.30168 
3.89028 1.34763 0.30168 4.2015 1.34763 0.30168 4.51272 1.34763 0.30168 
4.82394 1.34763 0.30168 -0.933667 1.61716 0.30168 -0.622444 1.61716 0.30168 
-0.311222 1.61716 0.30168 4.44089e-16 1.61716 0.30168 0.311222 1.61716 0.30168 
0.622444 1.61716 0.30168 0.933667 1.61716 0.30168 1.24489 1.61716 0.30168 
1.55611 1.61716 0.30168 1.86733 1.61716 0.30168 2.17856 1.61716 0.30168 
2.48978 1.61716 0.30168 2.801 1.61716 0.30168 3.11222 1.61716 0.30168 
3.42344 1.61716 0.30168 3.73467 1.61716 0.30168 4.04589 1.61716 0.30168 
[...]
POINT_DATA 27436
SCALARS scalars  float
LOOKUP_TABLE default
3.99559 4.29399 5.13348 6.24793 7.06963 7.03816 6.15237 4.97516 4.08655 
3.76917 4.08655 4.97516 6.15237 7.03816 7.06963 6.24793 5.13348 4.29399 
3.99559 4.29399 4.29399 4.87527 5.92691 7.03132 7.50038 6.95671 5.7743 
4.64977 4.02211 4.02211 4.64977 5.7743 6.95671 7.50038 7.03132 5.92691 
4.87527 4.294 5.13352 4.8753 5.13352 5.92694 7.10337 8.0423 7.98891 
6.93561 5.63448 4.733 4.43042 4.733 5.63448 6.93561 7.98891 8.0423 
7.10337 5.92694 5.13352 6.24803 5.927 5.927 6.24803 7.03141 8.04236 
8.49545 7.87781 6.672 5.67617 5.20332 5.20332 5.67617 6.672 7.87781 
8.49545 8.04236 7.03141 6.24803 7.06982 7.03151 7.10353 7.03151 7.06982 
7.50058 7.9891 7.87796 7.1334 6.37831 6.01654 5.94423 6.01654 6.37831 
7.1334 7.87796 7.9891 7.50058 7.06982 7.03851 7.50074 8.04263 8.04263 
7.50074 7.03851 6.95708 6.93603 6.67246 6.37871 6.37489 6.54838 6.54838 
6.37489 6.37871 6.67246 6.93603 6.95708 7.03851 6.15294 6.9573 7.98951 
8.496 7.98951 6.9573 6.15294 5.77491 5.63525 5.67715 6.01762 6.54916 
6.82131 6.54916 6.01762 5.67715 5.63525 5.77491 6.15294 4.97598 5.77517 
6.93657 7.87877 7.87877 6.93657 5.77517 4.97598 4.65067 4.73418 5.20489 
5.94604 6.54992 6.54992 5.94604 5.20489 4.73418 4.65067 4.97598 4.08757 
4.65089 5.63581 6.67345 7.13474 6.67345 5.63581 4.65089 4.08757 4.02326 
4.43192 5.20526 6.01867 6.37667 6.01867 5.20526 4.43192 4.02326 4.08757 
3.77027 4.02334 4.73456 5.67804 6.3802 6.3802 5.67804 4.73456 4.02334 
3.77027 4.02334 4.73456 5.67804 6.3802 6.3802 5.67804 4.73455 4.02334 
3.77027 4.08757 4.02326 4.43192 5.20526 6.01867 6.37667 6.01867 5.20526 
4.43192 4.02326 4.08757 4.65089 5.63581 6.67345 7.13474 6.67345 5.63581 
4.65089 4.08757 4.97598 4.65067 4.73418 5.20489 5.94604 6.54992 6.54992 
5.94604 5.2049 4.73418 4.65067 4.97598 5.77517 6.93657 7.87877 7.87877 
6.93657 5.77517 4.97598 6.15294 5.77491 5.63525 5.67715 6.01762 6.54916 
6.82131 6.54916 6.01762 5.67715 5.63525 5.77491 6.15294 6.9573 7.98951 
8.496 7.98951 6.9573 6.15294 7.03851 6.95708 6.93603 6.67246 6.37871 
6.37489 6.54838 6.54838 6.37489 6.37871 6.67246 6.93603 6.95708 7.03851 
7.50074 8.04263 8.04263 7.50074 7.03851 7.06982 7.50058 7.9891 7.87796 
7.1334 6.37831 6.01654 5.94423 6.01654 6.37831 7.1334 7.87796 7.9891 
7.50058 7.06982 7.03151 7.10353 7.03151 7.06982 6.24803 7.03141 8.04236 
8.49545 7.87781 6.672 5.67617 5.20332 5.20332 5.67617 6.672 7.87781 
8.49545 8.04236 7.03141 6.24803 5.927 5.927 6.24803 5.13352 5.92694 
7.10337 8.0423 7.98891 6.93561 5.63448 4.733 4.43042 4.733 5.63448 
6.93561 7.98891 8.0423 7.10337 5.92694 5.13352 4.8753 5.13352 4.29399 
4.87527 5.92691 7.03132 7.50038 6.95671 5.7743 4.64977 4.02211 4.02211 
4.64977 5.7743 6.95671 7.50038 7.03132 5.92691 4.87527 4.294 4.294 
3.99559 4.29399 5.13348 6.24793 7.06963 7.03816 6.15237 4.97516 4.08655 
3.76917 4.08655 4.97516 6.15237 7.03816 7.06963 6.24793 5.13348 4.29399 
3.99559 4.25168 4.61135 5.65273 7.10064 8.21945 8.18921 7.00819 5.49826 
4.40768 4.02885 4.40768 5.49826 7.00819 8.18921 8.21945 7.10064 5.65273 
4.61135 4.25168 4.61136 4.61136 4.9706 5.65349 6.39137 6.6981 6.30397 
5.47104 4.69439 4.27285 4.27285 4.69439 5.47104 6.30397 6.6981 6.39137 
5.65349 4.9706 4.61136 5.65275 5.69394 5.65275 5.65351 5.82775 6.0197 
5.94997 5.6031 5.24564 5.07271 5.03966 5.07271 5.24564 5.6031 5.94997 
6.0197 5.82775 5.65351 5.65275 7.10071 7.76441 7.76441 7.10071 6.39144 
6.01977 5.87299 5.7853 5.85084 6.18202 6.54709 6.54709 6.18202 5.85084 
5.7853 5.87299 6.01977 6.39144 7.10071 8.21961 10.1229 11.0623 10.1229 
8.21961 6.6983 5.95021 5.78553 6.12322 7.03315 8.21865 8.80198 8.21865 
7.03315 6.12322 5.78553 5.95021 6.6983 8.21961 8.18951 11.2189 13.9476 
13.9476 11.2189 8.18951 6.30438 5.60371 5.85169 7.03401 8.98661 10.6924 
10.6924 8.98661 7.03401 5.85169 5.60371 6.30438 8.18951 7.00872 10.0662 
13.9135 15.8685 13.9135 10.0662 7.00872 5.47181 5.24691 6.18403 8.22128 
10.6946 11.8988 10.6946 8.22128 6.18403 5.24691 5.47181 7.00872 5.49906 
7.6485 10.9551 13.8521 13.8521 10.9551 7.6485 5.49906 4.69564 5.07483 
6.55053 8.80659 10.6967 10.6967 8.80659 6.55053 5.07483 4.69564 5.49906 
4.40876 5.52396 7.5801 9.91842 11.0214 9.91842 7.5801 5.52396 4.40876 
4.27455 5.04248 6.55137 8.22389 8.9912 8.22389 6.55137 5.04248 4.27455 
4.40876 4.03009 4.40796 5.40562 6.78728 7.86703 7.86703 6.78728 5.40562 
4.40796 4.03009 4.27475 5.07563 6.18597 7.03739 7.03739 6.18597 5.07563 
4.27475 4.03009 4.40889 4.40794 4.6987 5.268 5.90094 6.1876 5.90094 
5.268 4.6987 4.40794 4.40889 4.69613 5.24805 5.8537 6.12595 5.8537 
5.24805 4.69613 4.40889 5.49926 5.52393 5.40547 5.26785 5.27985 5.37636 
5.37636 5.27985 5.26785 5.40547 5.52393 5.49926 5.47238 5.60476 5.78704 
5.78704 5.60476 5.47238 5.49926 7.00892 7.64846 7.57987 6.78691 5.90052 
5.37607 5.22595 5.37607 5.90052 6.78691 7.57987 7.64846 7.00892 6.30485 
5.95096 5.87394 5.95096 6.30485 7.00892 8.18967 10.0662 10.9549 9.91798 
7.8664 6.1869 5.37577 5.37577 6.1869 7.8664 9.91798 10.9549 10.0662 
8.18967 6.69863 6.02023 6.02023 6.69863 8.18967 8.21971 11.2189 13.9134 
13.8517 11.0208 7.86621 5.90005 5.2791 5.90005 7.86621 11.0208 13.8517 
13.9134 11.2189 8.21971 6.39164 5.82801 6.39164 8.21971 7.10077 10.1228 
13.9475 15.8682 13.8516 9.9177 6.78639 5.26709 5.26709 6.78639 9.9177 
13.8516 15.8682 13.9475 10.1228 7.10077 5.65362 5.65362 7.10077 5.65278 
7.7644 11.0623 13.9474 13.9132 10.9545 7.57934 5.40474 4.69783 5.40474 
7.57934 10.9545 13.9132 13.9474 11.0623 7.7644 5.65278 4.97066 5.65278 
4.61137 5.69394 7.76436 10.1227 11.2187 10.0658 7.64787 5.52314 4.40701 
4.40701 5.52314 7.64787 10.0658 11.2187 10.1227 7.76436 5.69394 4.61137 
4.61137 4.25168 4.61135 5.65273 7.10064 8.21945 8.18921 7.00819 5.49826 
4.40768 4.02885 4.40768 5.49826 7.00819 8.18921 8.21945 7.10064 5.65273 
4.61135 4.25168 4.87378 5.38698 6.95282 9.32024 11.3094 11.2834 9.23891 
6.81394 5.20129 4.66965 5.20129 6.81394 9.23891 11.2834 11.3094 9.32025 
6.95282 5.38698 4.87378 5.38698 5.38698 5.69302 6.37586 7.20913 7.58329 
7.12336 6.19268 5.40853 5.0324 5.0324 5.40853 6.19268 7.12336 7.58329 
7.20913 6.37586 5.69302 5.38698 6.95283 7.25014 6.95283 6.37588 5.98957 
5.85665 5.78452 5.75072 5.92283 6.28142 6.47967 6.28142 5.92283 5.75072 
5.78452 5.85665 5.98957 6.37588 6.95283 9.3203 11.1515 11.1515 9.3203 
7.20921 5.85673 5.36263 5.59829 6.57501 8.15332 9.51076 9.51076 8.15332 
6.57501 5.59829 5.36263 5.85673 7.20921 9.3203 11.3096 16.2054 18.785 
16.2054 11.3096 7.58351 5.78484 5.59865 6.88884 9.69783 13.2581 15.06 
13.2581 9.69783 6.88884 5.59865 5.78484 7.58351 11.3096 11.2837 18.8372 
26.9227 26.9227 18.8372 11.2837 7.12387 5.75163 6.5765 9.69962 15.135 
20.4653 20.4653 15.135 9.69962 6.5765 5.75163 7.12387 11.2837 9.23948 
16.1668 26.9077 33.6325 26.9077 16.1668 9.23948 6.19373 5.92489 8.1572 
13.2643 20.4717 24.5251 20.4717 13.2643 8.1572 5.92489 6.19373 9.23948 
6.81487 11.0675 18.7265 26.8831 26.8831 18.7265 11.0675 6.81487 5.41036 
6.28513 9.51789 15.0716 20.4781 20.4781 15.0716 9.51789 6.28513 5.41036 
6.81487 5.20263 7.12377 11.0412 16.1028 18.7479 16.1028 11.0412 7.12377 
5.20263 5.03501 6.48474 9.51967 13.2706 15.1466 13.2706 9.51967 6.48474 
5.03501 5.20263 4.67126 5.23487 6.80256 9.15706 11.1442 11.1442 9.15706 
6.80256 5.23487 4.67126 5.03536 6.28658 8.16106 9.70673 9.70673 8.16106 
6.28658 5.03536 4.67126 5.20289 5.23491 5.52769 6.17572 6.9821 7.36935 
6.9821 6.17572 5.52769 5.23491 5.20289 5.41121 5.92689 6.58015 6.89385 
6.58015 5.92689 5.41121 5.20289 6.81528 7.12387 6.80253 6.17567 5.73834 
5.59424 5.59424 5.73834 6.17567 6.80253 7.12387 6.81528 6.19467 5.75335 
5.60116 5.60116 5.75335 6.19467 6.81528 9.23987 11.0676 11.0412 9.15692 
6.98193 5.59413 5.15274 5.59413 6.98193 9.15692 11.0412 11.0676 9.23987 
7.12463 5.786 5.36408 5.786 7.12463 9.23987 11.284 16.1669 18.7265 
16.1027 11.144 7.36906 5.594 5.594 7.36906 11.144 16.1027 18.7265 
16.1669 11.284 7.58402 5.85741 5.85741 7.58402 11.284 11.3098 18.8373 
26.9076 26.8829 18.7476 11.1439 6.98169 5.738 6.98169 11.1439 18.7476 
26.8829 26.9076 18.8373 11.3098 7.20951 5.98993 7.20951 11.3098 9.32042 
16.2054 26.9226 33.6324 26.8828 16.1025 9.15659 6.17522 6.17522 9.15659 
16.1025 26.8828 33.6324 26.9226 16.2054 9.32042 6.37604 6.37604 9.32042 
6.95289 11.1515 18.785 26.9226 26.9075 18.7261 11.0407 6.80195 5.52704 
6.80195 11.0407 18.7261 26.9075 26.9226 18.785 11.1515 6.95289 5.69309 
6.95289 5.387 7.25015 11.1514 16.2053 18.837 16.1665 11.067 7.12301 
5.23395 5.23395 7.12301 11.067 16.1665 18.837 16.2053 11.1514 7.25015 
5.387 5.387 4.87378 5.38698 6.95282 9.32024 11.3094 11.2834 9.23891 
6.81394 5.20129 4.66965 5.20129 6.81394 9.23891 11.2834 11.3094 9.32025 
6.95282 5.38698 4.87378 5.50144 6.16177 8.26028 11.6508 14.7013 14.6817 
11.5877 8.15012 6.01322 5.33784 6.01322 8.15012 11.5877 14.6817 14.7013 
11.6508 8.26028 6.16177 5.50144 6.16176 6.16176 6.46797 7.25556 8.30996 
8.81827 8.2467 7.11966 6.25569 5.89613 5.89613 6.25569 7.11966 8.2467 
8.81827 8.30996 7.25556 6.46797 6.16176 8.26029 8.76662 8.26029 7.25557 
6.5267 6.2434 6.19316 6.35855 6.92995 7.76639 8.19375 7.76639 6.92995 
6.35855 6.19316 6.2434 6.5267 7.25557 8.26029 11.6508 14.6731 14.6731 
11.6508 8.31004 6.24349 5.55082 6.06536 7.85375 10.7561 13.3453 13.3453 
10.7561 7.85375 6.06536 5.55082 6.24349 8.31004 11.6508 14.7014 23.3585 
28.4582 23.3585 14.7014 8.81851 6.19357 6.06588 8.31613 13.4028 20.6052 
24.668 20.6052 13.4028 8.31613 6.06588 6.19357 8.81851 14.7014 14.682 
28.4675 48.1719 48.1719 28.4675 14.682 8.24732 6.35977 7.85598 13.4059 
24.6977 38.985 38.985 24.6977 13.4059 7.85598 6.35977 8.24732 14.682 
11.5883 23.3352 48.1824 74.4797 48.1824 23.3352 11.5883 7.12101 6.93291 
10.7625 20.6181 39.0045 53.8089 39.0045 20.6181 10.7625 6.93291 7.12101 
11.5883 8.15122 14.6109 28.4351 48.1916 48.1916 28.4351 14.6109 8.15122 
6.25815 7.77197 13.3578 24.6942 39.0241 39.0241 24.6942 13.3578 7.77197 
6.25815 8.15122 6.01485 8.66686 14.6013 23.3132 28.4404 23.3132 14.6013 
8.66686 6.01485 5.89971 8.20152 13.3609 20.631 24.7239 20.631 13.3609 
8.20152 5.89971 6.01485 5.33984 6.03985 8.15496 11.5572 14.6223 14.6223 
11.5572 8.15496 6.03985 5.33984 5.90021 7.77419 10.7689 13.4185 13.4185 
10.7689 7.77419 5.90021 5.33984 6.01523 6.03993 6.35082 7.1367 8.19456 
8.72228 8.19456 7.1367 6.35082 6.03993 6.01523 6.25934 6.93583 7.86153 
8.32388 7.86153 6.93583 6.25934 6.01523 8.15178 8.66705 8.15499 7.13668 
6.39822 6.12567 6.12567 6.39822 7.13668 8.15499 8.66705 8.15178 7.12231 
6.36217 6.06941 6.06941 6.36217 7.12231 8.15178 11.5889 14.6111 14.6013 
11.5572 8.19449 6.12562 5.47779 6.12562 8.19449 11.5572 14.6013 14.6111 
11.5889 8.24833 6.19512 5.55275 6.19512 8.24833 11.5889 14.6824 23.3354 
28.4352 23.3132 14.6222 8.72214 6.12555 6.12555 8.72214 14.6222 23.3132 
28.4352 23.3354 14.6824 8.81917 6.24437 6.24437 8.81917 14.6824 14.7017 
28.4677 48.1824 48.1915 28.4403 14.6221 8.19434 6.39802 8.19434 14.6221 
28.4403 48.1915 48.1824 28.4677 14.7017 8.31042 6.52716 8.31042 14.7017 
11.651 23.3586 48.1719 74.4796 48.1914 23.313 11.5569 7.13636 7.13636 
11.5569 23.313 48.1914 74.4796 48.1719 23.3586 11.651 7.25577 7.25577 
11.651 8.26037 14.6732 28.4582 48.1718 48.1822 28.4348 14.6009 8.15444 
6.35025 8.15444 14.6009 28.4348 48.1822 48.1718 28.4582 14.6732 8.26037 
6.46806 8.26037 6.1618 8.76664 14.6731 23.3585 28.4674 23.3349 14.6103 
8.66608 6.03887 6.03887 8.66608 14.6103 23.3349 28.4674 23.3585 14.6731 
8.76664 6.1618 6.1618 5.50144 6.16177 8.26028 11.6508 14.7013 14.6817 
11.5877 8.15012 6.01322 5.33784 6.01322 8.15012 11.5877 14.6817 14.7013 
11.6508 8.26028 6.16177 5.50144 5.82096 6.49098 8.65307 12.2217 15.495 
15.4787 12.1688 8.56111 6.36837 5.68666 6.36837 8.56111 12.1688 15.4787 
15.495 12.2217 8.65307 6.49098 5.82096 6.49097 6.49097 6.75668 7.5085 
8.56567 9.0938 8.53407 7.44508 6.66586 6.38415 6.38415 6.66586 7.44508 
8.53407 9.0938 8.56567 7.5085 6.75668 6.49097 8.65307 9.22489 8.65307 
7.50851 6.65908 6.32546 6.31449 6.62797 7.46354 8.60343 9.17533 8.60343 
7.46354 6.62797 6.31449 6.32546 6.65908 7.50851 8.65307 12.2217 15.5559 
15.5559 12.2217 8.56575 6.32556 5.62181 6.32034 8.56807 12.2558 15.632 
15.632 12.2558 8.56807 6.32034 5.62181 6.32556 8.56575 12.2217 15.4951 
25.1742 31.044 25.1742 15.4951 9.09406 6.31493 6.32092 9.12692 15.6113 
25.4779 31.5 25.4779 15.6113 9.12692 6.32092 6.31493 9.09406 15.4951 
15.479 31.0186 55.4752 55.4752 31.0186 15.479 8.53474 6.62935 8.57072 
15.6154 31.5034 57.0439 57.0439 31.5034 15.6154 8.57072 6.62935 8.53474 
15.479 12.1694 25.15 55.4945 103.687 55.4945 25.15 12.1694 7.44658 
7.46697 12.2637 25.4962 57.0861 120.408 57.0861 25.4962 12.2637 7.46697 
7.44658 12.1694 8.56229 15.4887 31.022 55.5171 55.5171 31.022 15.4887 
8.56229 6.66863 8.61004 15.6481 31.5397 57.1284 57.1284 31.5397 15.6481 
8.61004 6.66863 8.56229 6.37014 9.11585 15.4782 25.1367 31.0065 25.1367 
15.4782 9.11585 6.37014 6.38823 9.18462 15.6521 25.5145 31.5432 25.5145 
15.6521 9.18462 6.38823 6.37014 5.68886 6.35714 8.53768 12.1344 15.4341 
15.4341 12.1344 8.53768 6.35714 5.68886 6.38881 8.61268 12.2717 15.6315 
15.6315 12.2717 8.61268 6.38881 5.68886 6.37057 6.35723 6.62799 7.39609 
8.47282 9.01841 8.47282 7.39609 6.62799 6.35723 6.37057 6.66999 7.47038 
8.57732 9.1362 8.57732 7.47038 6.66999 6.37057 8.56293 9.11608 8.53773 
7.39609 6.55514 6.23221 6.23221 6.55514 7.39609 8.53773 9.11608 8.56293 
7.44804 6.63208 6.32498 6.32498 6.63208 7.44804 8.56293 12.17 15.4889 
15.4782 12.1344 8.47279 6.23218 5.53141 6.23218 8.47279 12.1344 15.4782 
15.4889 12.17 8.53588 6.31667 5.62397 6.31667 8.53588 12.17 15.4795 
25.1502 31.0221 25.1367 15.434 9.01833 6.23214 6.23214 9.01833 15.434 
25.1367 31.0221 25.1502 15.4795 9.09479 6.32653 6.32653 9.09479 15.4795 
15.4954 31.0188 55.4946 55.5171 31.0064 15.434 8.47267 6.55499 8.47267 
15.434 31.0064 55.5171 55.4946 31.0188 15.4954 8.56617 6.65958 8.56617 
15.4954 12.2219 25.1743 55.4753 103.687 55.517 25.1365 12.1341 7.39581 
7.39581 12.1341 25.1365 55.517 103.687 55.4753 25.1743 12.2219 7.50873 
7.50873 12.2219 8.65316 15.556 31.044 55.4752 55.4944 31.0218 15.4778 
8.5372 6.62744 8.5372 15.4778 31.0218 55.4944 55.4752 31.044 15.556 
8.65316 6.75678 8.65316 6.49101 9.22491 15.5559 25.1741 31.0185 25.1497 
15.4881 9.11506 6.35612 6.35612 9.11506 15.4881 25.1497 31.0185 25.1741 
15.5559 9.22491 6.49101 6.49101 5.82096 6.49098 8.65307 12.2217 15.495 
15.4787 12.1688 8.56111 6.36837 5.68666 6.36837 8.56111 12.1688 15.4787 
15.495 12.2217 8.65307 6.49098 5.82096 5.9296 6.41563 7.99058 10.5591 
12.8477 12.8219 10.477 7.84806 6.2231 5.71724 6.2231 7.84806 10.477 
12.8219 12.8477 10.5591 7.99058 6.41563 5.9296 6.41562 6.41562 6.53415 
6.98573 7.68434 8.04163 7.66108 6.94396 6.48374 6.3649 6.3649 6.48374 
6.94396 7.66108 8.04163 7.68434 6.98573 6.53415 6.41562 7.99058 8.47589 
7.99058 6.98574 6.18714 5.84449 5.86239 6.25842 7.15481 8.2847 8.83328 
8.2847 7.15481 6.25842 5.86239 5.84449 6.18714 6.98574 7.99058 10.5591 
13.0536 13.0536 10.5591 7.68441 5.84458 5.28616 5.98927 8.08453 11.3946 
14.3309 14.3309 11.3946 8.08453 5.98927 5.28616 5.84458 7.68441 10.5591 
12.8479 19.4394 23.0598 19.4394 12.8479 8.04186 5.86279 5.9898 8.5549 
14.2041 22.3153 26.9887 22.3153 14.2041 8.5549 5.9898 5.86279 8.04186 
12.8479 12.8222 22.9659 35.0794 35.0794 22.9659 12.8222 7.6617 6.25968 
8.0869 14.2076 26.9481 44.1525 44.1525 26.9481 14.2076 8.0869 6.25968 
7.6617 12.8222 10.4776 19.3832 35.0639 46.5669 35.0639 19.3832 10.4776 
6.94533 7.15791 11.4015 22.3298 44.1772 64.3207 44.1772 22.3298 11.4015 
7.15791 6.94533 10.4776 7.84915 12.9264 22.9865 35.0579 35.0579 22.9865 
12.9264 7.84915 6.48627 8.29061 14.3446 27.0188 44.2019 44.2019 27.0188 
14.3446 8.29061 6.48627 7.84915 6.22473 8.27747 12.9071 19.3552 22.9233 
19.3552 12.9071 8.27747 6.22473 6.36862 8.84154 14.348 22.3444 26.9783 
22.3444 14.348 8.84154 6.36862 6.22473 5.71926 6.17128 7.78554 10.4161 
12.7558 12.7558 10.4161 7.78554 6.17128 5.71926 6.36915 8.29297 11.4083 
14.2213 14.2213 11.4083 8.29297 6.36915 5.71926 6.22514 6.17137 6.30652 
6.80799 7.55497 7.93854 7.55497 6.80799 6.30652 6.17137 6.22514 6.48753 
7.161 8.0928 8.56316 8.0928 7.161 6.48753 6.22514 7.84976 8.2777 
7.7856 6.80799 6.04387 5.71895 5.71895 6.04387 6.80799 7.7856 8.2777 
7.84976 6.94669 6.2622 5.99351 5.99351 6.2622 6.94669 7.84976 10.4782 
12.9267 12.9072 10.4161 7.55496 5.71893 5.1278 5.71893 7.55496 10.4161 
12.9072 12.9267 10.4782 7.66277 5.86441 5.28817 5.86441 7.66277 10.4782 
12.8226 19.3834 22.9866 19.3553 12.7558 7.9385 5.7189 5.7189 7.9385 
12.7558 19.3553 22.9866 19.3834 12.8226 8.04256 5.8455 5.8455 8.04256 
12.8226 12.8481 22.9661 35.064 35.058 22.9233 12.7557 7.55486 6.04376 
7.55486 12.7557 22.9233 35.058 35.064 22.9661 12.8481 7.68481 6.18761 
7.68481 12.8481 10.5593 19.4395 35.0795 46.5668 35.0579 19.3551 10.4159 
6.80775 6.80775 10.4159 19.3551 35.0579 46.5668 35.0795 19.4395 10.5593 
6.98595 6.98595 10.5593 7.99066 13.0536 23.0598 35.0794 35.0638 22.9863 
12.9068 7.78511 6.30603 7.78511 12.9068 22.9863 35.0638 35.0794 23.0598 
13.0536 7.99066 6.53425 7.99066 6.41566 8.47592 13.0536 19.4393 22.9658 
19.3829 12.9259 8.27675 6.17035 6.17035 8.27675 12.9259 19.3829 22.9658 
19.4393 13.0536 8.47592 6.41566 6.41566 5.9296 6.41563 7.99058 10.5591 
12.8477 12.8219 10.477 7.84806 6.2231 5.71724 6.2231 7.84806 10.477 
12.8219 12.8477 10.5591 7.99058 6.41563 5.9296 6.56378 6.69461 7.24122 
8.28932 9.25212 9.1945 8.10151 6.89619 6.20084 6.00587 6.20084 6.89619 
8.10151 9.1945 9.25212 8.28932 7.24122 6.69461 6.56378 6.6946 6.6946 
6.47606 6.33999 6.42083 6.48847 6.34911 6.18436 6.23033 6.38529 6.38529 
6.23033 6.18436 6.34911 6.48847 6.42083 6.33999 6.47606 6.6946 7.24122 
7.65195 7.24122 6.34001 5.53616 5.12921 5.13973 5.58013 6.4487 7.43378 
7.88683 7.43378 6.4487 5.58013 5.13973 5.12921 5.53616 6.34001 7.24122 
8.28935 9.7881 9.7881 8.28935 6.42089 5.12929 4.73358 5.2988 6.8636 
9.14944 11.0311 11.0311 9.14944 6.8636 5.2988 4.73358 5.12929 6.42089 
8.28935 9.25222 12.5706 14.1938 12.5706 9.25222 6.48866 5.14005 5.29919 
7.09234 10.6711 15.1606 17.4507 15.1606 10.6711 7.09234 5.29919 5.14005 
6.48866 9.25222 9.19474 13.9549 18.4262 18.4262 13.9549 9.19474 6.3496 
5.58108 6.86523 10.6732 17.3173 24.0841 24.0841 17.3173 10.6732 6.86523 
5.58108 6.3496 9.19474 8.102 12.4446 18.3752 21.5944 18.3752 12.4446 
8.102 6.18542 6.45093 9.15383 15.1681 24.0923 29.3967 24.0923 15.1681 
9.15383 6.45093 6.18542 8.102 6.89705 9.50946 14.0257 18.3479 18.3479 
14.0257 9.50946 6.89705 6.23223 7.43786 11.0393 17.4649 24.1004 24.1004 
17.4649 11.0393 7.43786 6.23223 6.89705 6.20212 7.20624 9.48225 12.3967 
13.8657 12.3967 9.48225 7.20624 6.20212 6.38804 7.89244 11.0414 15.1755 
17.3314 15.1755 11.0414 7.89244 6.38804 6.20212 6.00745 6.13026 6.81171 
8.01772 9.09434 9.09434 8.01772 6.81171 6.13026 6.00745 6.38843 7.43949 
9.15822 10.6814 10.6814 9.15822 7.43949 6.38843 6.00745 6.20244 6.13033 
5.99505 6.00365 6.20655 6.33915 6.20655 6.00365 5.99505 6.13033 6.20244 
6.23318 6.45315 6.8693 7.09795 6.8693 6.45315 6.23318 6.20244 6.89754 
7.20643 6.81176 6.00366 5.2996 4.94919 4.94919 5.2996 6.00366 6.81176 
7.20643 6.89754 6.18647 5.58297 5.30194 5.30194 5.58297 6.18647 6.89754 
8.10248 9.50969 9.48233 8.01775 6.20654 4.94918 4.52395 4.94918 6.20654 
8.01775 9.48233 9.50969 8.10248 6.35045 5.14132 4.73515 5.14132 6.35045 
8.10248 9.19511 12.4448 14.0258 12.3967 9.09433 6.33911 4.94915 4.94915 
6.33911 9.09433 12.3967 14.0258 12.4448 9.19511 6.48923 5.13003 5.13003 
6.48923 9.19511 9.25247 13.9551 18.3752 18.3479 13.8657 9.09428 6.20646 
5.2995 6.20646 9.09428 13.8657 18.3479 18.3752 13.9551 9.25247 6.42123 
5.53655 6.42123 9.25247 8.2895 12.5707 18.4263 21.5943 18.3479 12.3966 
8.01757 6.00346 6.00346 8.01757 12.3966 18.3479 21.5943 18.4263 12.5707 
8.2895 6.34019 6.34019 8.2895 7.24129 9.78815 14.1938 18.4262 18.3751 
14.0255 9.48199 6.81136 5.99465 6.81136 9.48199 14.0255 18.3751 18.4262 
14.1938 9.78815 7.24129 6.47614 7.24129 6.69464 7.65198 9.78811 12.5706 