# vtk DataFile Version 4.2
vtk output
ASCII
DATASET STRUCTURED_GRID
DIMENSIONS 19 19 76
POINTS 27436 float
0 0 0 0.311222 0 0 0.622444 0 0 
0.933667 0 0 1.24489 0 0 1.55611 0 0 
1.86733 0 0 2.17856 0 0 2.48978 0 0 
2.801 0 0 3.11222 0 0 3.42344 0 0 
3.73467 0 0 4.04589 0 0 4.35711 0 0 
4.66833 0 0 4.97956 0 0 5.29078 0 0 
5.602 0 0 -0.155611 0.269526 0 0.155611 0.269526 0 
0.466833 0.269526 0 0.778056 0.269526 0 1.08928 0.269526 0 
1.4005 0.269526 0 1.71172 0.269526 0 2.02294 0.269526 0 
2.33417 0.269526 0 2.64539 0.269526 0 2.95661 0.269526 0 
3.26783 0.269526 0 3.57906 0.269526 0 3.89028 0.269526 0 
4.2015 0.269526 0 4.51272 0.269526 0 4.82394 0.269526 0 
5.13517 0.269526 0 5.44639 0.269526 0 -0.311222 0.539053 0 
1.66533e-16 0.539053 0 0.311222 0.539053 0 0.622444 0.539053 0 
0.933667 0.539053 0 1.24489 0.539053 0 1.55611 0.539053 0 
1.86733 0.539053 0 2.17856 0.539053 0 2.48978 0.539053 0 
2.801 0.539053 0 3.11222 0.539053 0 3.42344 0.539053 0 
3.73467 0.539053 0 4.04589 0.539053 0 4.35711 0.539053 0 
4.66833 0.539053 0 4.97956 0.539053 0 5.29078 0.539053 0 
-0.466833 0.808579 0 -0.155611 0.808579 0 0.155611 0.808579 0 
0.466833 0.808579 0 0.778056 0.808579 0 1.08928 0.808579 0 
1.4005 0.808579 0 1.71172 0.808579 0 2.02294 0.808579 0 
2.33417 0.808579 0 2.64539 0.808579 0 2.95661 0.808579 0 
3.26783 0.808579 0 3.57906 0.808579 0 3.89028 0.808579 0 
4.2015 0.808579 0 4.51272 0.808579 0 4.82394 0.808579 0 
5.13517 0.808579 0 -0.622444 1.07811 0 -0.311222 1.07811 0 
3.33067e-16 1.07811 0 0.311222 1.07811 0 0.622444 1.07811 0 
0.933667 1.07811 0 1.24489 1.07811 0 1.55611 1.07811 0 
1.86733 1.07811 0 2.17856 1.07811 0 2.48978 1.07811 0 
2.801 1.07811 0 3.11222 1.07811 0 3.42344 1.07811 0 
3.73467 1.07811 0 4.04589 1.07811 0 4.35711 1.07811 0 
4.66833 1.07811 0 4.97956 1.07811 0 -0.778056 1.34763 0 
-0.466833 1.34763 0 -0.155611 1.34763 0 0.155611 1.34763 0 
0.466833 1.34763 0 0.778056 1.34763 0 1.08928 1.34763 0 
1.4005 1.34763 0 1.71172 1.34763 0 2.02294 1.34763 0 
2.33417 1.34763 0 2.64539 1.34763 0 2.95661 1.34763 0 
3.26783 1.34763 0 3.57906 1.34763 0 3.89028 1.34763 0 
4.2015 1.34763 0 4.51272 1.34763 0 4.82394 1.34763 0 
-0.933667 1.61716 0 -0.622444 1.61716 0 -0.311222 1.61716 0 
4.44089e-16 1.61716 0 0.311222 1.61716 0 0.622444 1.61716 0 
0.933667 1.61716 0 1.24489 1.61716 0 1.55611 1.61716 0 
1.86733 1.61716 0 2.17856 1.61716 0 2.48978 1.61716 0 
2.801 1.61716 0 3.11222 1.61716 0 3.42344 1.61716 0 
3.73467 1.61716 0 4.04589 1.61716 0 4.35711 1.61716 0 
4.66833 1.61716 0 -1.08928 1.88668 0 -0.778056 1.88668 0 
-0.466833 1.88668 0 -0.155611 1.88668 0 0.155611 1.88668 0 
0.466833 1.88668 0 0.778056 1.88668 0 1.08928 1.88668 0 
1.4005 1.88668 0 1.71172 1.88668 0 2.02294 1.88668 0 
2.33417 1.88668 0 2.64539 1.88668 0 2.95661 1.88668 0 
3.26783 1.88668 0 3.57906 1.88668 0 3.89028 1.88668 0 
4.2015 1.88668 0 4.51272 1.88668 0 -1.24489 2.15621 0 
-0.933667 2.15621 0 -0.622444 2.15621 0 -0.311222 2.15621 0 
6.66134e-16 2.15621 0 0.311222 2.15621 0 0.622444 2.15621 0 
0.933667 2.15621 0 1.24489 2.15621 0 1.55611 2.15621 0 
1.86733 2.15621 0 2.17856 2.15621 0 2.48978 2.15621 0 
2.801 2.15621 0 3.11222 2.15621 0 3.42344 2.15621 0 
3.73467 2.15621 0 4.04589 2.15621 0 4.35711 2.15621 0 
-1.4005 2.42574 0 -1.08928 2.42574 0 -0.778056 2.42574 0 
-0.466833 2.42574 0 -0.155611 2.42574 0 0.155611 2.42574 0 
0.466833 2.42574 0 0.778056 2.42574 0 1.08928 2.42574 0 
1.4005 2.42574 0 1.71172 2.42574 0 2.02294 2.42574 0 
2.33417 2.42574 0 2.64539 2.42574 0 2.95661 2.42574 0 
3.26783 2.42574 0 3.57906 2.42574 0 3.89028 2.42574 0 
4.2015 2.42574 0 -1.55611 2.69526 0 -1.24489 2.69526 0 
-0.933667 2.69526 0 -0.622444 2.69526 0 -0.311222 2.69526 0 
6.66134e-16 2.69526 0 0.311222 2.69526 0 0.622444 2.69526 0 
0.933667 2.69526 0 1.24489 2.69526 0 1.55611 2.69526 0 
1.86733 2.69526 0 2.17856 2.69526 0 2.48978 2.69526 0 
2.801 2.69526 0 3.11222 2.69526 0 3.42344 2.69526 0 
3.73467 2.69526 0 4.04589 2.69526 0 -1.71172 2.96479 0 
-1.4005 2.96479 0 -1.08928 2.96479 0 -0.778056 2.96479 0 
-0.466833 2.96479 0 -0.155611 2.96479 0 0.155611 2.96479 0 
0.466833 2.96479 0 0.778056 2.96479 0 1.08928 2.96479 0 
1.4005 2.96479 0 1.71172 2.96479 0 2.02294 2.96479 0 
2.33417 2.96479 0 2.64539 2.96479 0 2.95661 2.96479 0 
3.26783 2.96479 0 3.57906 2.96479 0 3.89028 2.96479 0 
-1.86733 3.23432 0 -1.55611 3.23432 0 -1.24489 3.23432 0 
-0.933667 3.23432 0 -0.622444 3.23432 0 -0.311222 3.23432 0 
8.88178e-16 3.23432 0 0.311222 3.23432 0 0.622444 3.23432 0 
0.933667 3.23432 0 1.24489 3.23432 0 1.55611 3.23432 0 
1.86733 3.23432 0 2.17856 3.23432 0 2.48978 3.23432 0 
2.801 3.23432 0 3.11222 3.23432 0 3.42344 3.23432 0 
3.73467 3.23432 0 -2.02294 3.50384 0 -1.71172 3.50384 0 
-1.4005 3.50384 0 -1.08928 3.50384 0 -0.778056 3.50384 0 
-0.466833 3.50384 0 -0.155611 3.50384 0 0.155611 3.50384 0 
0.466833 3.50384 0 0.778056 3.50384 0 1.08928 3.50384 0 
1.4005 3.50384 0 1.71172 3.50384 0 2.02294 3.50384 0 
2.33417 3.50384 0 2.64539 3.50384 0 2.95661 3.50384 0 
3.26783 3.50384 0 3.57906 3.50384 0 -2.17856 3.77337 0 
-1.86733 3.77337 0 -1.55611 3.77337 0 -1.24489 3.77337 0 
-0.933667 3.77337 0 -0.622444 3.77337 0 -0.311222 3.77337 0 
8.88178e-16 3.77337 0 0.311222 3.77337 0 0.622444 3.77337 0 
0.933667 3.77337 0 1.24489 3.77337 0 1.55611 3.77337 0 
1.86733 3.77337 0 2.17856 3.77337 0 2.48978 3.77337 0 
2.801 3.77337 0 3.11222 3.77337 0 3.42344 3.77337 0 
-2.33417 4.0429 0 -2.02294 4.0429 0 -1.71172 4.0429 0 
-1.4005 4.0429 0 -1.08928 4.0429 0 -0.778056 4.0429 0 
-0.466833 4.0429 0 -0.155611 4.0429 0 0.155611 4.0429 0 
0.466833 4.0429 0 0.778056 4.0429 0 1.08928 4.0429 0 
1.4005 4.0429 0 1.71172 4.0429 0 2.02294 4.0429 0 
2.33417 4.0429 0 2.64539 4.0429 0 2.95661 4.0429 0 
3.26783 4.0429 0 -2.48978 4.31242 0 -2.17856 4.31242 0 
-1.86733 4.31242 0 -1.55611 4.31242 0 -1.24489 4.31242 0 
-0.933667 4.31242 0 -0.622444 4.31242 0 -0.311222 4.31242 0 
1.33227e-15 4.31242 0 0.311222 4.31242 0 0.622444 4.31242 0 
0.933667 4.31242 0 1.24489 4.31242 0 1.55611 4.31242 0 
1.86733 4.31242 0 2.17856 4.31242 0 2.48978 4.31242 0 
2.801 4.31242 0 3.11222 4.31242 0 -2.64539 4.58195 0 
-2.33417 4.58195 0 -2.02294 4.58195 0 -1.71172 4.58195 0 
-1.4005 4.58195 0 -1.08928 4.58195 0 -0.778056 4.58195 0 
-0.466833 4.58195 0 -0.155611 4.58195 0 0.155611 4.58195 0 
0.466833 4.58195 0 0.778056 4.58195 0 1.08928 4.58195 0 
1.4005 4.58195 0 1.71172 4.58195 0 2.02294 4.58195 0 
2.33417 4.58195 0 2.64539 4.58195 0 2.95661 4.58195 0 
-2.801 4.85147 0 -2.48978 4.85147 0 -2.17856 4.85147 0 
-1.86733 4.85147 0 -1.55611 4.85147 0 -1.24489 4.85147 0 
-0.933667 4.85147 0 -0.622444 4.85147 0 -0.311222 4.85147 0 
1.33227e-15 4.85147 0 0.311222 4.85147 0 0.622444 4.85147 0 
0.933667 4.85147 0 1.24489 4.85147 0 1.55611 4.85147 0 
1.86733 4.85147 0 2.17856 4.85147 0 2.48978 4.85147 0 
2.801 4.85147 0 0 0 0.30168 0.311222 0 0.30168 
0.622444 0 0.30168 0.933667 0 0.30168 1.24489 0 0.30168 
1.55611 0 0.30168 1.86733 0 0.30168 2.17856 0 0.30168 
2.48978 0 0.30168 2.801 0 0.30168 3.11222 0 0.30168 
3.42344 0 0.30168 3.73467 0 0.30168 4.04589 0 0.30168 
4.35711 0 0.30168 4.66833 0 0.30168 4.97956 0 0.30168 
5.29078 0 0.30168 5.602 0 0.30168 -0.155611 0.269526 0.30168 
0.155611 0.269526 0.30168 0.466833 0.269526 0.30168 0.778056 0.269526 0.30168 
1.08928 0.269526 0.30168 1.4005 0.269526 0.30168 1.71172 0.269526 0.30168 
2.02294 0.269526 0.30168 2.33417 0.269526 0.30168 2.64539 0.269526 0.30168 
2.95661 0.269526 0.30168 3.26783 0.269526 0.30168 3.57906 0.269526 0.30168 
3.89028 0.269526 0.30168 4.2015 0.269526 0.30168 4.51272 0.269526 0.30168 
4.82394 0.269526 0.30168 5.13517 0.269526 0.30168 5.44639 0.269526 0.30168 
-0.311222 0.539053 0.30168 1.66533e-16 0.539053 0.30168 0.311222 0.539053 0.30168 
0.622444 0.539053 0.30168 0.933667 0.539053 0.30168 1.24489 0.539053 0.30168 
1.55611 0.539053 0.30168 1.86733 0.539053 0.30168 2.17856 0.539053 0.30168 
2.48978 0.539053 0.30168 2.801 0.539053 0.30168 3.11222 0.539053 0.30168 
3.42344 0.539053 0.30168 3.73467 0.539053 0.30168 4.04589 0.539053 0.30168 
4.35711 0.539053 0.30168 4.66833 0.539053 0.30168 4.97956 0.539053 0.30168 
5.29078 0.539053 0.30168 -0.466833 0.808579 0.30168 -0.155611 0.808579 0.30168 
0.155611 0.808579 0.30168 0.466833 0.808579 0.30168 0.778056 0.808579 0.30168 
1.08928 0.808579 0.30168 1.4005 0.808579 0.30168 1.71172 0.808579 0.30168 
2.02294 0.808579 0.30168 2.33417 0.808579 0.30168 2.64539 0.808579 0.30168 
2.95661 0.808579 0.30168 3.26783 0.808579 0.30168 3.57906 0.808579 0.30168 
3.89028 0.808579 0.30168 4.2015 0.808579 0.30168 4.51272 0.808579 0.30168 
4.82394 0.808579 0.30168 5.13517 0.808579 0.30168 -0.622444 1.07811 0.30168 
-0.311222 1.07811 0.30168 3.33067e-16 1.07811 0.30168 0.311222 1.07811 0.30168 
0.622444 1.07811 0.30168 0.933667 1.07811 0.30168 1.24489 1.07811 0.30168 
1.55611 1.07811 0.30168 1.86733 1.07811 0.30168 2.17856 1.07811 0.30168 
2.48978 1.07811 0.30168 2.801 1.07811 0.30168 3.11222 1.07811 0.30168 
3.42344 1.07811 0.30168 3.73467 1.07811 0.30168 4.04589 1.07811 0.30168 
4.35711 1.07811 0.30168 4.66833 1.07811 0.30168 4.97956 1.07811 0.30168 
-0.778056 1.34763 0.30168 -0.466833 1.34763 0.30168 -0.155611 1.34763 0.30168 
0.155611 1.34763 0.30168 0.466833 1.34763 0.30168 0.778056 1.34763 0.30168 
1.08928 1.34763 0.30168 1.4005 1.34763 0.30168 1.71172 1.34763 0.30168 
2.02294 1.34763 0.30168 2.33417 1.34763 0.30168 2.64539 1.34763 0.30168 
2.95661 1.34763 0.30168 3.26783 1.34763 0.30168 3.57906 1.34763 0.30168 
3.89028 1.34763 0.30168 4.2015 1.34763 0.30168 4.51272 1.34763 0.30168 
4.82394 1.34763 0.30168 -0.933667 1.61716 0.30168 -0.622444 1.61716 0.30168 
-0.311222 1.61716 0.30168 4.44089e-16 1.61716 0.30168 0.311222 1.61716 0.30168 
0.622444 1.61716 0.30168 0.933667 1.61716 0.30168 1.24489 1.61716 0.30168 
1.55611 1.61716 0.30168 1.86733 1.61716 0.30168 2.17856 1.61716 0.30168 
2.48978 1.61716 0.30168 2.801 1.61716 0.30168 3.11222 1.61716 0.30168 
3.42344 1.61716 0.30168 3.73467 1.61716 0.30168 4.04589 1.61716 0.30168 
[...]
POINT_DATA 27436
SCALARS scalars float
LOOKUP_TABLE default
4323.65 4327.19 4338.38 4355.76 56.0407 54.2878 39.2458 21.8844 10.7509 
7.23657 10.7509 21.8844 39.2458 54.2878 56.0407 4355.76 4338.38 4327.19 
4323.65 4327.19 4327.19 4334.9 4351.48 58.9731 66.4404 55.5405 34.8376 
18.2207 10.4481 10.4481 18.2207 34.8376 55.5405 66.4404 58.9732 4351.48 
4334.9 4327.19 4338.38 4334.9 4338.38 4351.48 4375.68 83.0909 81.8254 
58.6876 34.1114 20.4603 16.6985 20.4602 34.1114 58.6876 81.8254 83.0909 
4375.68 4351.48 4338.38 4355.76 4351.48 4351.48 4355.76 58.9735 83.0911 
96.032 81.044 53.7143 4348.38 4341.09 4341.09 4348.38 53.7143 81.044 
96.032 83.0911 58.9734 4355.76 56.0414 58.9739 4375.68 58.9739 56.0414 
66.4411 81.8264 81.0452 63.2316 4359.6 4353.79 4353.7 4353.79 4359.6 
63.2316 81.0452 81.8264 66.4411 56.0414 54.2893 66.442 83.0925 83.0925 
66.442 54.2893 55.5423 58.6905 53.7194 4359.61 4359.89 4365.63 4365.63 
4359.89 4359.61 53.7194 58.6905 55.5423 54.2893 39.2488 55.5439 81.8293 
96.0358 81.8293 55.5439 39.2488 34.8414 34.1184 4348.39 4353.8 4365.64 
4372.34 4365.64 4353.8 4348.39 34.1184 34.8414 39.2488 21.8894 34.8436 
58.6955 81.0528 81.0528 58.6955 34.8436 21.8894 18.2273 20.473 4341.11 
4353.73 4365.65 4365.65 4353.73 4341.11 20.4731 18.2273 21.8894 10.7578 
18.2295 34.1247 53.7315 63.2485 53.7315 34.1247 18.2295 10.7578 10.4574 
16.716 4341.12 4353.82 4359.91 4353.82 4341.12 16.716 10.4574 10.7578 
7.24421 10.4583 20.4778 4348.4 4359.63 4359.63 4348.4 20.4778 10.4583 
7.24421 10.4583 20.4778 4348.4 4359.63 4359.63 4348.4 20.4779 10.4583 
7.24421 10.7578 10.4574 16.716 4341.12 4353.82 4359.91 4353.82 4341.12 
16.716 10.4574 10.7578 18.2295 34.1247 53.7315 63.2485 53.7315 34.1247 
18.2295 10.7578 21.8894 18.2273 20.4731 4341.11 4353.73 4365.65 4365.65 
4353.73 4341.11 20.473 18.2273 21.8894 34.8436 58.6955 81.0528 81.0528 
58.6955 34.8436 21.8894 39.2488 34.8414 34.1184 4348.39 4353.8 4365.64 
4372.34 4365.64 4353.8 4348.39 34.1184 34.8414 39.2488 55.5439 81.8293 
96.0358 81.8293 55.5439 39.2488 54.2893 55.5423 58.6905 53.7194 4359.61 
4359.89 4365.63 4365.63 4359.89 4359.61 53.7194 58.6905 55.5423 54.2893 
66.442 83.0925 83.0925 66.442 54.2893 56.0414 66.4411 81.8264 81.0452 
63.2316 4359.6 4353.79 4353.7 4353.79 4359.6 63.2316 81.0452 81.8264 
66.4411 56.0414 58.9738 4375.68 58.9738 56.0414 4355.76 58.9735 83.0911 
96.032 81.044 53.7143 4348.38 4341.09 4341.09 4348.38 53.7143 81.044 
96.032 83.0911 58.9734 4355.76 4351.48 4351.48 4355.76 4338.38 4351.48 
4375.68 83.0909 81.8254 58.6876 34.1114 20.4602 16.6985 20.4602 34.1114 
58.6876 81.8254 83.0909 4375.68 4351.48 4338.38 4334.9 4338.38 4327.19 
4334.9 4351.48 58.9731 66.4404 55.5405 34.8376 18.2207 10.4481 10.4481 
18.2207 34.8376 55.5405 66.4404 58.9732 4351.48 4334.9 4327.19 4327.19 
4323.65 4327.19 4338.38 4355.76 56.0407 54.2878 39.2458 21.8844 10.7509 
7.23657 10.7509 21.8844 39.2458 54.2878 56.0407 4355.76 4338.38 4327.19 
4323.65 4326.66 4331.64 4348.27 4376.09 86.3758 84.7883 59.4167 31.5725 
14.9498 9.95927 14.95 31.5725 59.4167 84.7883 86.3758 4376.09 4348.27 
4331.64 4326.66 4331.64 4331.64 4335.56 4345.19 44.296 48.1716 40.8827 
27.6531 17.3977 12.952 12.952 17.3977 27.6531 40.8827 48.1716 44.296 
4345.19 4335.56 4331.64 4348.27 4350.71 4348.27 4345.19 33.7734 35.1798 
33.6329 28.2992 24.5508 24.979 26.0916 24.979 24.5508 28.2992 33.6329 
35.1798 33.7734 4345.19 4348.27 4376.09 4395.27 4395.27 4376.09 44.2964 
35.1802 32.746 31.4595 34.146 44.5938 56.1615 56.1615 44.5938 34.146 
31.4595 32.746 35.1802 44.2964 4376.09 86.3766 143.734 174.982 143.734 
86.3766 48.1725 33.6345 31.4619 38.866 61.5713 4407.81 4425.14 4407.81 
61.5713 38.866 31.4619 33.6345 48.1725 86.3766 84.7899 174.426 270.316 
270.316 174.426 84.7899 40.8853 28.3047 34.1578 61.5883 4427.08 4479.35 
4479.35 4427.08 61.5883 34.1578 28.3047 40.8853 84.7899 59.4199 140.932 
269.526 344.164 269.526 140.932 59.4199 27.659 24.5656 44.6288 4407.87 
4479.41 4518.49 4479.41 4407.87 44.6288 24.5656 27.659 59.4199 31.578 
79.0872 172.074 269.815 269.815 172.074 79.0872 31.578 17.4092 25.0085 
56.2294 4425.25 4479.48 4479.48 4425.25 56.2294 25.0085 17.4092 31.578 
14.958 34.829 79.9139 142.238 4488.15 142.238 79.9139 34.829 14.958 
12.9692 26.1331 56.2463 4407.93 4427.19 4407.93 56.2463 26.1331 12.9692 
14.958 9.96874 15.9745 33.4924 4373.12 4396.79 4396.79 4373.12 33.4924 
15.9745 9.96874 12.9714 25.0199 44.6634 61.656 61.656 44.6634 25.0199 
12.9714 9.96874 14.9586 15.9741 4333.96 4341.21 4351.33 4356.41 4351.33 
4341.21 4333.96 15.9741 14.9586 17.414 24.5797 34.1865 38.9068 34.1865 
24.5797 17.414 14.9586 31.5789 34.8279 33.4898 4341.21 4339.32 4340.44 
4340.44 4339.32 4341.21 33.4898 34.8279 31.5789 27.6635 28.3148 31.4777 
31.4777 28.3148 27.6635 31.5789 59.4205 79.086 79.9103 4373.12 4351.33 
4340.44 4337.85 4340.44 4351.33 4373.12 79.9103 79.086 59.4205 40.888 
33.6397 32.7528 33.6397 40.888 59.4205 84.7901 140.931 172.071 142.231 
4396.78 4356.4 4340.43 4340.43 4356.4 4396.78 142.231 172.071 140.931 
84.7901 48.1738 35.1823 35.1823 48.1738 84.7901 86.3766 174.425 269.524 
269.811 4488.15 4396.78 4351.33 4339.31 4351.33 4396.78 4488.15 269.811 
269.524 174.425 86.3766 44.2968 33.7741 44.2968 86.3766 4376.09 143.733 
270.315 344.161 269.81 142.228 4373.11 4341.21 4341.21 4373.11 142.228 
269.81 344.161 270.315 143.733 4376.09 4345.19 4345.19 4376.09 4348.27 
4395.27 174.981 270.315 269.524 172.069 79.906 33.4822 4333.96 33.4822 
79.906 172.069 269.524 270.315 174.981 4395.27 4348.27 4335.56 4348.27 
4331.64 4350.71 4395.27 143.733 174.424 140.93 79.0827 34.8226 15.967 
15.967 34.8226 79.0827 140.93 174.424 143.733 4395.27 4350.71 4331.64 
4331.64 4326.66 4331.64 4348.27 4376.09 86.3758 84.7883 59.4167 31.5725 
14.9498 9.95927 14.95 31.5725 59.4167 84.7883 86.3758 4376.09 4348.27 
4331.64 4326.66 4334.21 4343.07 4375.04 121.983 178.952 177.769 117.905 
57.8802 25.8036 16.8862 25.8036 57.8802 117.905 177.769 178.952 121.983 
4375.04 4343.07 4334.21 4343.07 4343.07 4346.78 4359.09 63.1529 71.1994 
60.3123 40.6691 27.2242 22.5476 22.5476 27.2242 40.6691 60.3123 71.1994 
63.1529 4359.09 4346.78 4343.07 4375.04 4383.78 4375.04 4359.09 35.6484 
32.1435 30.5997 30.0987 35.4903 46.4916 52.6584 46.4916 35.4903 30.0987 
30.5997 32.1435 35.6484 4359.09 4375.04 121.984 4492.61 4492.61 121.984 
63.1534 32.144 22.6758 27.3756 48.9714 90.2443 130.601 130.601 90.2443 
48.9714 27.3756 22.6758 32.144 63.1534 121.984 178.952 358.102 466.9 
358.102 178.952 71.2008 30.6023 27.3805 56.1247 132.161 250.501 318.389 
250.501 132.161 56.1247 27.3805 30.6023 71.2008 178.952 177.771 465.869 
858.991 858.991 465.869 177.771 60.3162 30.1092 48.9982 132.209 319.089 
545.143 545.143 319.089 132.209 48.9982 30.1092 60.3162 177.771 117.909 
356.371 858.979 1241.15 858.979 356.371 117.909 40.6792 35.5215 90.3349 
250.712 545.429 740.942 545.429 250.712 90.3349 35.5215 40.6792 117.909 
57.8876 176.414 465.828 860.129 860.129 465.828 176.414 57.8876 27.2454 
46.5585 130.793 318.819 545.716 545.716 318.819 130.793 46.5585 27.2454 
57.8876 25.8153 67.904 177.88 359.102 4781.36 359.102 177.88 67.904 
25.8153 22.5811 52.7557 130.841 250.924 319.519 250.924 130.841 52.7557 
22.5811 25.8153 16.9006 27.4476 61.1389 4433.4 4492.37 4492.37 4433.4 
61.1389 27.4476 16.9006 22.5855 46.5849 90.4253 132.401 132.401 90.4253 
46.5849 22.5855 16.9006 25.8172 27.4474 4345.81 4357.03 4374.78 4384.21 
4374.78 4357.03 4345.81 27.4474 25.8172 27.2551 35.5519 49.0644 56.2213 
49.0644 35.5519 27.2551 25.8172 57.8899 67.9035 61.1369 4357.03 4346.56 
4344.06 4344.06 4346.56 4357.03 61.1369 67.9035 57.8899 40.6878 30.1289 
27.4126 27.4126 30.1289 40.6878 57.8899 117.911 176.413 177.877 4433.39 
4374.78 4344.06 4335.72 4344.06 4374.78 4433.39 177.877 176.413 117.911 
60.3212 30.6115 22.6879 30.6115 60.3212 117.911 177.771 356.37 465.825 
359.097 4492.36 4384.21 4344.06 4344.06 4384.21 4492.36 359.097 465.825 
356.37 177.771 71.2028 32.1473 32.1473 71.2028 177.771 178.952 465.869 
858.977 860.126 4781.36 4492.36 4374.78 4346.56 4374.78 4492.36 4781.36 
860.126 858.977 465.869 178.952 63.1539 35.6493 63.1539 178.952 121.983 
358.101 858.989 1241.15 860.125 359.095 4433.39 4357.03 4357.03 4433.39 
359.095 860.125 1241.15 858.989 358.101 121.983 4359.09 4359.09 121.983 
4375.04 4492.61 466.899 858.989 858.977 465.824 177.874 61.1307 4345.8 
61.1307 177.874 465.824 858.977 858.989 466.899 4492.61 4375.04 4346.78 
4375.04 4343.07 4383.78 4492.61 358.101 465.868 356.369 176.41 67.8977 
27.4399 27.4399 67.8977 176.41 356.369 465.868 358.101 4492.61 4383.78 
4343.07 4343.07 4334.21 4343.07 4375.04 121.983 178.952 177.769 117.905 
57.8802 25.8036 16.8862 25.8036 57.8802 117.905 177.769 178.952 121.983 
4375.04 4343.07 4334.21 4342.03 4355.02 4404.5 190.343 297.499 296.772 
187.819 86.8412 37.222 24.1757 37.2221 86.8412 187.819 296.772 297.499 
190.343 4404.5 4355.02 4342.03 4355.02 4355.02 4359.48 62.7455 89.6588 
104.087 87.7148 58.3118 39.8534 34.5697 34.5697 39.8534 58.3118 87.7148 
104.087 89.6588 62.7455 4359.48 4355.02 4404.5 4419.64 4404.5 62.7457 
44.9933 40.1063 38.9815 40.9546 54.0179 77.0822 89.8205 77.0822 54.0179 
40.9546 38.9815 40.1063 44.9933 62.7457 4404.5 190.344 298.889 298.889 
190.344 89.6593 40.1069 26.301 36.4221 78.0734 162.083 250.682 250.682 
162.083 78.0734 36.4221 26.301 40.1069 89.6593 190.344 297.5 675.638 
941.643 675.638 297.5 104.088 38.9853 36.4298 91.2289 251.4 547.23 
744.069 547.23 251.4 91.2289 36.4298 38.9853 104.088 297.5 296.774 
941.298 2214.74 2214.74 941.298 296.774 87.7201 40.9712 78.122 251.507 
744.737 1579.19 1579.19 744.737 251.507 78.122 40.9712 87.7201 296.774 
187.824 675.059 2216.58 4421.51 2216.58 675.059 187.824 58.3268 54.0712 
162.268 547.807 1580.46 2646.52 1580.46 547.807 162.268 54.0712 58.3268 
187.824 86.851 296.532 942.47 2219.33 2219.33 942.47 296.532 86.851 
39.8867 77.2039 251.107 745.376 1581.74 1581.74 745.376 251.107 77.2039 
39.8867 86.851 37.2383 103.094 297.892 677.965 945.241 677.965 297.892 
103.094 37.2383 34.6239 90.0016 251.214 548.385 746.045 548.385 251.214 
90.0016 34.6239 37.2383 24.1962 38.6061 89.6718 4503.76 4612.25 4612.25 
4503.76 89.6718 38.6061 24.1962 34.6314 77.2522 162.453 251.932 251.932 
162.453 77.2522 34.6314 24.1962 37.2413 38.6061 44.93 4374.85 4402.88 
4418.25 4402.88 4374.85 44.93 38.6061 37.2413 39.9025 54.1238 78.243 
91.4095 78.243 54.1238 39.9025 37.2413 86.8548 103.094 89.6703 4374.85 
4357.69 4353.49 4353.49 4357.69 4374.85 89.6703 103.094 86.8548 58.3403 
41.0031 36.4828 36.4828 41.0031 58.3403 86.8548 187.827 296.532 297.889 
4503.76 4402.88 4353.49 4340.55 4353.49 4402.88 4503.76 297.889 296.532 
187.827 87.7276 38.9992 26.3194 38.9992 87.7276 187.827 296.775 675.058 
942.468 677.961 4612.25 4418.25 4353.49 4353.49 4418.25 4612.25 677.961 
942.468 675.058 296.775 104.091 40.1116 40.1116 104.091 296.775 297.5 
941.298 2216.58 2219.33 945.235 4612.25 4402.88 4357.69 4402.88 4612.25 
945.235 2219.33 2216.58 941.298 297.5 89.66 44.9944 89.66 297.5 
190.343 675.637 2214.74 4421.51 2219.33 677.959 4503.76 4374.85 4374.85 
4503.76 677.959 2219.33 4421.51 2214.74 675.637 190.343 62.7457 62.7457 
190.343 4404.5 298.888 941.643 2214.74 2216.57 942.466 297.886 89.665 
44.9231 89.665 297.886 942.466 2216.57 2214.74 941.643 298.888 4404.5 
4359.48 4404.5 4355.02 4419.64 298.888 675.637 941.297 675.056 296.528 
103.088 38.5977 38.5977 103.088 296.528 675.056 941.297 675.637 298.888 
4419.64 4355.02 4355.02 4342.03 4355.02 4404.5 190.343 297.499 296.772 
187.819 86.8412 37.222 24.1757 37.222 86.8412 187.819 296.772 297.499 
190.343 4404.5 4355.02 4342.03 31.5399 44.9347 97.2458 206.799 327.439 
327.015 205.291 94.4341 41.0243 27.1901 41.0243 94.4341 205.291 327.015 
327.439 206.799 97.2458 44.9347 31.5399 44.9348 44.9348 48.7694 66.3586 
96.4045 112.751 95.3806 64.2344 45.6103 41.1215 41.1215 45.6103 64.2344 
95.3806 112.751 96.4045 66.3586 48.7694 44.9348 97.246 114.214 97.246 
66.3587 47.8676 43.3042 42.9136 46.7354 64.6716 95.3486 112.315 95.3486 
64.6716 46.7354 42.9136 43.3042 47.8676 66.3587 97.246 206.8 328.055 
328.055 206.8 96.405 43.3049 29.4731 43.0149 96.3379 208.181 331.672 
331.672 208.181 96.3379 43.0149 29.4731 43.3049 96.405 206.8 327.44 
764.13 1083.3 764.13 327.44 112.753 42.9181 43.0243 113.729 332.418 
780.903 1111.26 780.903 332.418 113.729 43.0243 42.9181 112.753 327.44 
327.017 1083.44 2770.8 2770.8 1083.44 327.017 95.3866 46.7552 96.4001 
332.568 1112.25 2897.91 2897.91 1112.25 332.568 96.4001 46.7552 95.3866 
327.017 205.296 764.049 2773.65 7423.81 2773.65 764.049 205.296 64.2519 
64.738 208.431 781.833 2901.3 9375.77 2901.3 781.833 208.431 64.738 
64.2519 205.296 94.4448 326.646 1084.61 2777.03 2777.03 1084.61 326.646 
94.4448 45.6502 95.5042 332.275 1113.55 2904.71 2904.71 1113.55 332.275 
95.5042 45.6502 94.4448 41.0426 111.486 327.375 765.956 1086.53 765.956 
327.375 111.486 41.0426 41.1874 112.55 332.426 782.763 1114.53 782.763 
332.426 112.55 41.1874 41.0426 27.2135 41.4365 95.6635 207.606 4642.23 
4642.23 207.606 95.6635 41.4365 27.2135 41.1965 95.5662 208.681 333.172 
333.172 208.681 95.5662 41.1965 27.2135 41.0464 41.4367 46.9293 4379.22 
4409.51 4426.25 4409.51 4379.22 46.9293 41.4367 41.0464 45.6694 64.8036 
96.5551 113.963 96.5551 64.8036 45.6694 41.0464 94.4495 111.487 95.6625 
4379.22 4360.4 4355.76 4355.76 4360.4 4379.22 95.6625 111.487 94.4495 
64.268 46.7939 43.0891 43.0891 46.7939 64.268 94.4495 205.299 326.646 
327.374 207.604 4409.51 4355.76 4341.8 4355.76 4409.51 207.604 327.374 
326.646 205.299 95.3954 42.9344 29.4947 42.9344 95.3954 205.299 327.018 
764.049 1084.61 765.953 4642.23 4426.25 4355.76 4355.76 4426.25 4642.23 
765.953 1084.61 764.049 327.018 112.756 43.3102 43.3102 112.756 327.018 
327.44 1083.44 2773.64 2777.03 1086.52 4642.23 4409.51 4360.4 4409.51 
4642.23 1086.52 2777.03 2773.64 1083.44 327.44 96.4059 47.8689 96.4059 
327.44 206.8 764.129 2770.8 7423.81 2777.03 765.952 207.601 4379.22 
4379.22 207.601 765.952 2777.03 7423.81 2770.8 764.129 206.8 66.3587 
66.3587 206.8 97.2457 328.054 1083.3 2770.8 2773.64 1084.61 327.371 
95.6583 46.924 95.6583 327.371 1084.61 2773.64 2770.8 1083.3 328.054 
97.2457 48.7692 97.2457 44.9346 114.213 328.054 764.129 1083.44 764.047 
326.642 111.48 41.4283 41.4283 111.48 326.642 764.047 1083.44 764.129 
328.054 114.213 44.9346 44.9346 31.5399 44.9347 97.2458 206.799 327.439 
327.015 205.291 94.4341 41.0243 27.1901 41.0243 94.4341 205.291 327.015 
327.439 206.799 97.2458 44.9347 31.5399 29.8944 39.6748 77.2085 152.455 
230.965 230.545 151.027 74.5921 36.04 25.8491 36.04 74.5921 151.027 
230.545 230.965 152.455 77.2085 39.6748 29.8944 39.6749 39.6749 42.2326 
54.8465 4389.1 4400.1 4388.53 53.8654 41.1694 38.7608 38.7608 41.1694 
53.8654 4388.53 4400.1 4389.1 54.8465 42.2326 39.6749 77.2089 89.3317 
77.2089 54.8466 4353.46 4348.87 4349.04 4354.57 58.6315 85.2342 99.7254 
85.2342 58.6315 4354.57 4349.04 4348.87 4353.46 54.8466 77.2089 152.456 
231.628 231.628 152.456 4389.1 4348.87 4338.45 4351.56 4399.01 179.048 
278.558 278.558 179.048 4399.01 4351.56 4338.45 4348.87 4389.1 152.456 
230.966 487.704 653.908 487.704 230.966 4400.1 4349.05 4351.57 4413.33 
279.278 620.366 854.918 620.366 279.278 4413.33 4351.57 4349.05 4400.1 
230.966 230.547 653.644 1321.41 1321.41 653.644 230.547 4388.53 4354.58 
4399.06 279.399 855.653 1918.88 1918.88 855.653 279.399 4399.06 4354.58 
4388.53 230.547 151.032 487.091 1321.9 2092.27 1321.9 487.091 151.032 
53.8808 58.6887 179.253 621.045 1920.6 3498.39 1920.6 621.045 179.253 
58.6887 53.8808 151.032 74.6015 229.684 653.51 1322.58 1322.58 653.51 
229.684 74.6015 41.2043 85.3664 279.039 856.495 1922.31 1922.31 856.495 
279.039 85.3664 41.2043 74.6015 36.056 85.9508 229.538 487.097 653.83 
487.097 229.538 85.9508 36.056 38.8183 99.9232 279.159 621.725 857.232 
621.725 279.159 99.9232 38.8183 36.056 25.8696 35.3646 73.8925 150.411 
229.896 229.896 150.411 73.8925 35.3646 25.8696 38.8263 85.419 179.458 
279.879 279.879 179.458 85.419 38.8263 25.8696 36.0594 35.3648 38.464 
52.0683 74.4847 4399.3 74.4847 52.0683 38.464 35.3648 36.0594 41.2211 
58.7454 4399.19 4413.52 4399.19 58.7454 41.2211 36.0594 74.6057 85.9512 
73.8919 52.0676 4351.87 4347.77 4347.77 4351.87 52.0676 73.8919 85.9512 
74.6057 53.8951 4354.62 4351.62 4351.62 4354.62 53.8951 74.6057 151.035 
229.684 229.537 150.41 74.4828 4347.77 4336.98 4347.77 74.4828 150.41 
229.537 229.684 151.035 4388.54 4349.06 4338.47 4349.06 4388.54 151.035 
230.548 487.091 653.509 487.095 229.893 4399.3 4347.77 4347.77 4399.3 
229.893 487.095 653.509 487.091 230.548 4400.11 4348.88 4348.88 4400.11 
230.548 230.966 653.643 1321.9 1322.58 653.827 229.892 74.481 4351.87 
74.481 229.892 653.827 1322.58 1321.9 653.643 230.966 4389.1 4353.46 
4389.1 230.966 152.455 487.703 1321.41 2092.27 1322.58 487.095 150.408 
52.0648 52.0648 150.408 487.095 1322.58 2092.27 1321.41 487.703 152.455 
54.8465 54.8465 152.455 77.2085 231.628 653.908 1321.41 1321.9 653.508 
229.535 73.8889 38.4603 73.8889 229.535 653.508 1321.9 1321.41 653.908 
231.628 77.2085 42.2324 77.2085 39.6747 89.3314 231.628 487.703 653.642 
487.089 229.681 85.9455 35.3578 35.3578 85.9455 229.681 487.089 653.642 
487.703 231.628 89.3314 39.6747 39.6747 29.8944 39.6748 77.2085 152.455 
230.965 230.545 151.027 74.5921 36.04 25.8491 36.04 74.5921 151.027 
230.545 230.965 152.455 77.2085 39.6748 29.8944 40.7366 43.1831 56.5298 
4400.03 4430.22 4429.41 4397.17 50.7138 34.1415 30.1956 34.1415 50.7138 
4397.17 4429.41 4430.22 4400.03 56.5298 43.1831 40.7366 43.1832 43.1832 
40.5127 4354.21 4359.88 4363.56 4358.76 4351.64 36.1598 37.4432 37.4432 
36.1598 4351.64 4358.76 4363.56 4359.88 4354.21 40.5127 43.1832 56.53 
63.9041 56.53 4354.21 4341.78 4336.95 4337.06 4342.54 4356.84 62.0641 
71.0228 62.0641 4356.84 4342.54 4337.06 4336.95 4341.78 4354.21 56.53 
4400.03 122.208 122.208 4400.03 4359.88 4336.95 4330.83 4339.88 4369.68 
4423.72 160.902 160.902 4423.72 4369.68 4339.88 4330.83 4336.95 4359.88 
4400.03 4430.22 214.765 268.84 214.765 4430.22 4363.56 4337.06 4339.88 
4376.94 4471.69 308.218 396.117 308.218 4471.69 4376.94 4339.88 4337.06 
4363.56 4430.22 4429.41 267.097 440.512 440.512 267.097 4429.41 4358.77 
4342.55 4369.71 4471.75 395.95 701.015 701.015 395.95 4471.75 4369.71 
4342.55 4358.77 4429.41 4397.17 212.988 439.835 583.71 439.835 212.988 
4397.17 4351.65 4356.88 4423.83 308.488 701.414 981.328 701.414 308.488 
4423.83 4356.88 4351.65 4397.17 50.7203 117.801 266.224 439.162 439.162 
266.224 117.801 50.7203 36.1825 62.141 161.136 396.678 701.814 701.814 
396.678 161.136 62.141 36.1825 50.7203 34.1523 56.1315 116.82 211.158 
264.52 211.158 116.82 56.1315 34.1523 37.4796 71.1356 161.194 308.759 
396.511 308.759 161.194 71.1356 37.4796 34.1523 30.2094 32.7727 48.3931 
80.8509 113.288 113.288 80.8509 48.3931 32.7727 30.2094 37.4847 62.1716 
4423.93 4471.98 4471.98 4423.93 62.1716 37.4847 30.2094 34.1546 32.7729 
31.166 34.3871 42.8958 47.8741 42.8958 34.3871 31.166 32.7729 34.1546 
36.1932 4356.91 4369.79 4377.05 4369.79 4356.91 36.1932 34.1546 50.7231 
56.1317 48.3927 34.3867 24.7801 21.5763 21.5763 24.7801 34.3867 48.3927 
56.1317 50.7231 4351.66 4342.57 4339.92 4339.92 4342.57 4351.66 50.7231 
4397.17 117.801 116.819 80.8499 42.8948 21.5757 15.4917 21.5757 42.8948 
80.8499 116.819 117.801 4397.17 4358.77 4337.07 4330.84 4337.07 4358.77 
4397.17 4429.42 212.987 266.223 211.157 113.286 47.8725 21.5751 21.5751 
47.8725 113.286 211.157 266.223 212.987 4429.42 4363.56 4336.95 4336.95 
4363.56 4429.42 4430.22 267.097 439.834 439.161 264.519 113.286 42.8939 
24.7785 42.8939 113.286 264.519 439.161 439.834 267.097 4430.22 4359.88 
4341.78 4359.88 4430.22 4400.03 214.765 440.511 583.709 439.161 211.156 
80.8489 34.3852 34.3852 80.8489 211.156 439.161 583.709 440.511 214.765 
4400.03 4354.21 4354.21 4400.03 56.5297 122.207 268.84 440.511 439.834 
266.223 116.818 48.3908 31.1636 48.3908 116.818 266.223 439.834 440.511 